 Entering Gaussian System, Link 0=g09
 Input=/scratch/mverot/HeH/HeH.com
 Output=/scratch/mverot/HeH/HeH.log
 Initial command:
 /opt/g09/l1.exe "/scratch/mverot/HeH/Gau-123789.inp" -scrdir="/scratch/mverot/HeH/"
 Entering Link 1 = /opt/g09/l1.exe PID=    123791.
  
 Copyright (c) 1988,1990,1992,1993,1995,1998,2003,2009,2013,
            Gaussian, Inc.  All Rights Reserved.
  
 This is part of the Gaussian(R) 09 program.  It is based on
 the Gaussian(R) 03 system (copyright 2003, Gaussian, Inc.),
 the Gaussian(R) 98 system (copyright 1998, Gaussian, Inc.),
 the Gaussian(R) 94 system (copyright 1995, Gaussian, Inc.),
 the Gaussian 92(TM) system (copyright 1992, Gaussian, Inc.),
 the Gaussian 90(TM) system (copyright 1990, Gaussian, Inc.),
 the Gaussian 88(TM) system (copyright 1988, Gaussian, Inc.),
 the Gaussian 86(TM) system (copyright 1986, Carnegie Mellon
 University), and the Gaussian 82(TM) system (copyright 1983,
 Carnegie Mellon University). Gaussian is a federally registered
 trademark of Gaussian, Inc.
  
 This software contains proprietary and confidential information,
 including trade secrets, belonging to Gaussian, Inc.
  
 This software is provided under written license and may be
 used, copied, transmitted, or stored only in accord with that
 written license.
  
 The following legend is applicable only to US Government
 contracts under FAR:
  
                    RESTRICTED RIGHTS LEGEND
  
 Use, reproduction and disclosure by the US Government is
 subject to restrictions as set forth in subparagraphs (a)
 and (c) of the Commercial Computer Software - Restricted
 Rights clause in FAR 52.227-19.
  
 Gaussian, Inc.
 340 Quinnipiac St., Bldg. 40, Wallingford CT 06492
  
  
 ---------------------------------------------------------------
 Warning -- This program may not be used in any manner that
 competes with the business of Gaussian, Inc. or will provide
 assistance to any competitor of Gaussian, Inc.  The licensee
 of this program is prohibited from giving any competitor of
 Gaussian, Inc. access to this program.  By using this program,
 the user acknowledges that Gaussian, Inc. is engaged in the
 business of creating and licensing software in the field of
 computational chemistry and represents and warrants to the
 licensee that it is not a competitor of Gaussian, Inc. and that
 it will not use this program in any manner prohibited above.
 ---------------------------------------------------------------
  

 Cite this work as:
 Gaussian 09, Revision D.01,
 M. J. Frisch, G. W. Trucks, H. B. Schlegel, G. E. Scuseria, 
 M. A. Robb, J. R. Cheeseman, G. Scalmani, V. Barone, B. Mennucci, 
 G. A. Petersson, H. Nakatsuji, M. Caricato, X. Li, H. P. Hratchian, 
 A. F. Izmaylov, J. Bloino, G. Zheng, J. L. Sonnenberg, M. Hada, 
 M. Ehara, K. Toyota, R. Fukuda, J. Hasegawa, M. Ishida, T. Nakajima, 
 Y. Honda, O. Kitao, H. Nakai, T. Vreven, J. A. Montgomery, Jr., 
 J. E. Peralta, F. Ogliaro, M. Bearpark, J. J. Heyd, E. Brothers, 
 K. N. Kudin, V. N. Staroverov, T. Keith, R. Kobayashi, J. Normand, 
 K. Raghavachari, A. Rendell, J. C. Burant, S. S. Iyengar, J. Tomasi, 
 M. Cossi, N. Rega, J. M. Millam, M. Klene, J. E. Knox, J. B. Cross, 
 V. Bakken, C. Adamo, J. Jaramillo, R. Gomperts, R. E. Stratmann, 
 O. Yazyev, A. J. Austin, R. Cammi, C. Pomelli, J. W. Ochterski, 
 R. L. Martin, K. Morokuma, V. G. Zakrzewski, G. A. Voth, 
 P. Salvador, J. J. Dannenberg, S. Dapprich, A. D. Daniels, 
 O. Farkas, J. B. Foresman, J. V. Ortiz, J. Cioslowski, 
 and D. J. Fox, Gaussian, Inc., Wallingford CT, 2013.
 
 ******************************************
 Gaussian 09:  AM64L-G09RevD.01 24-Apr-2013
                11-May-2023 
 ******************************************
 %chk=H2
 -----------------------------------------
 #P HF/GEN SP pop=full iop(3/33=4) gfinput
 -----------------------------------------
 1/38=1/1;
 2/12=2,17=6,18=5,40=1/2;
 3/5=7,11=9,16=1,24=10,25=1,30=1,33=4/1,2,3;
 4//1;
 5/5=2,38=5/2;
 6/7=3,28=1/1;
 99/5=1,9=1/99;
 Leave Link    1 at Thu May 11 16:39:06 2023, MaxMem=           0 cpu:         0.0
 (Enter /opt/g09/l101.exe)
 ---------------------
 Calcul STO-3G pour H2
 ---------------------
 Symbolic Z-matrix:
 Charge =  1 Multiplicity = 1
 He                    0.        0.        0. 
 H                     0.        0.        0.77429 
 
 NAtoms=      2 NQM=        2 NQMF=       0 NMMI=      0 NMMIF=      0
                NMic=       0 NMicF=      0.
                    Isotopes and Nuclear Properties:
 (Nuclear quadrupole moments (NQMom) in fm**2, nuclear magnetic moments (NMagM)
  in nuclear magnetons)

  Atom         1           2
 IAtWgt=           4           1
 AtmWgt=   4.0026032   1.0078250
 NucSpn=           0           1
 AtZEff=   0.0000000   0.0000000
 NQMom=    0.0000000   0.0000000
 NMagM=    0.0000000   2.7928460
 AtZNuc=   2.0000000   1.0000000
 Leave Link  101 at Thu May 11 16:39:06 2023, MaxMem=    33554432 cpu:         0.1
 (Enter /opt/g09/l202.exe)
                          Input orientation:                          
 ---------------------------------------------------------------------
 Center     Atomic      Atomic             Coordinates (Angstroms)
 Number     Number       Type             X           Y           Z
 ---------------------------------------------------------------------
      1          2           0        0.000000    0.000000    0.000000
      2          1           0        0.000000    0.000000    0.774292
 ---------------------------------------------------------------------
 Stoichiometry    HHe(1+)
 Framework group  C*V[C*(HHe)]
 Deg. of freedom     1
 Full point group                 C*V     NOp   4
 Largest Abelian subgroup         C2V     NOp   4
 Largest concise Abelian subgroup C1      NOp   1
                         Standard orientation:                         
 ---------------------------------------------------------------------
 Center     Atomic      Atomic             Coordinates (Angstroms)
 Number     Number       Type             X           Y           Z
 ---------------------------------------------------------------------
      1          2           0        0.000000    0.000000    0.258097
      2          1           0        0.000000    0.000000   -0.516195
 ---------------------------------------------------------------------
 Rotational constants (GHZ):      0.0000000   1047.0193523   1047.0193523
 Leave Link  202 at Thu May 11 16:39:06 2023, MaxMem=    33554432 cpu:         0.0
 (Enter /opt/g09/l301.exe)
 General basis read from cards:  (5D, 7F)
                         Coordinates in L301:                         
 ---------------------------------------------------------------------
 Center     Atomic      Atomic             Coordinates (Angstroms)
 Number     Number       Type             X           Y           Z
 ---------------------------------------------------------------------
      1          2           0        0.000000    0.000000    0.258097
      2          1           0        0.000000    0.000000   -0.516195
 ---------------------------------------------------------------------
 Centers:       1
 S 3 1.00
     Exponent=  9.7539346200D+00 Coefficients=  1.5432897000D-01
     Exponent=  1.7766911500D+00 Coefficients=  5.3532814000D-01
     Exponent=  4.8084429000D-01 Coefficients=  4.4463454000D-01
 ****
 Centers:       2
 S 3 1.00
     Exponent=  3.4252509140D+00 Coefficients=  1.5432896730D-01
     Exponent=  6.2391372980D-01 Coefficients=  5.3532814230D-01
     Exponent=  1.6885540400D-01 Coefficients=  4.4463454220D-01
 ****
 FixB: optimizing general contractions.
 Ernie: Thresh=  0.10000D-02 Tol=  0.10000D-05 Strict=F.
 IA=     1 ShT= 0 ShC= 0 NL=   1 NS=   0.
         I=   1 JX=   3 NP=   0
 IA=     1 L=0 SC=0 ISt=    0 NBk=    0 NP=    0 IndPr=    0.
 IA=     2 ShT= 0 ShC= 0 NL=   1 NS=   0.
         I=   1 JX=   3 NP=   0
 IA=     2 L=0 SC=0 ISt=    0 NBk=    0 NP=    0 IndPr=    0.
 Electric field displacement of shell     1 is  0.00D+00
 Electric field displacement of shell     2 is  0.00D+00
 AO basis set in the form of general basis input (Overlap normalization):
      1 0
 S   3 1.00       0.000000000000
      0.9753934620D+01  0.1543289048D+00
      0.1776691150D+01  0.5353279138D+00
      0.4808442900D+00  0.4446343521D+00
 ****
      2 0
 S   3 1.00       0.000000000000
      0.3425250914D+01  0.1543289673D+00
      0.6239137298D+00  0.5353281423D+00
      0.1688554040D+00  0.4446345422D+00
 ****

 LdAtmC:  AtmChg=     2.000000     1.000000
 AtZEff=     -2.0000000     -1.0000000
 NEqShl: 
              1            2            3            4
     1            1            1            1            1
     2            2            2            2            2
 NEqBas: 
              1            2            3            4
     1            1            1            1            1
     2            2            2            2            2
 There are     2 symmetry adapted cartesian basis functions of A1  symmetry.
   1         1   1   1   1
   2         2   2   2   2
 There are     0 symmetry adapted cartesian basis functions of A2  symmetry.
 There are     0 symmetry adapted cartesian basis functions of B1  symmetry.
 There are     0 symmetry adapted cartesian basis functions of B2  symmetry.
 Order= 1 2 4 3
 Reordered character table:
              1            2            3            4            5
     1            1            1            1            1            1
     2            2            1            1           -1           -1
     3            4            1           -1           -1            1
     4            3            1           -1            1           -1
 NEqShl: 
              1            2            3            4
     1            1            1            1            1
     2            2            2            2            2
 NEqBas: 
              1            2            3            4
     1            1            1            1            1
     2            2            2            2            2
 There are     2 symmetry adapted basis functions of A1  symmetry.
   1         1   1   1   1
   2         2   2   2   2
 There are     0 symmetry adapted basis functions of A2  symmetry.
 There are     0 symmetry adapted basis functions of B1  symmetry.
 There are     0 symmetry adapted basis functions of B2  symmetry.
 Order= 1 2 4 3
 Reordered character table:
              1            2            3            4            5
     1            1            1            1            1            1
     2            2            1            1           -1           -1
     3            4            1           -1           -1            1
     4            3            1           -1            1           -1
     2 basis functions,     6 primitive gaussians,     2 cartesian basis functions
     1 alpha electrons        1 beta electrons
       nuclear repulsion energy         1.3668671345 Hartrees.
 IS=     1 IAt=     1 ISR=     1 T=0 IP=      1 IndIP=      1 IndIPD=      0 C=  6.070749D-01  0.000000D+00                             NZ=T
 IS=     1 IAt=     1 ISR=     1 T=0 IP=      2 IndIP=      2 IndIPD=      1 C=  5.871363D-01  0.000000D+00                             NZ=T
 IS=     1 IAt=     1 ISR=     1 T=0 IP=      3 IndIP=      3 IndIPD=      2 C=  1.829854D-01  0.000000D+00                             NZ=T
 IS=     2 IAt=     2 ISR=     1 T=0 IP=      1 IndIP=      4 IndIPD=      0 C=  2.769344D-01  0.000000D+00                             NZ=T
 IS=     2 IAt=     2 ISR=     1 T=0 IP=      2 IndIP=      5 IndIPD=      1 C=  2.678389D-01  0.000000D+00                             NZ=T
 IS=     2 IAt=     2 ISR=     1 T=0 IP=      3 IndIP=      6 IndIPD=      2 C=  8.347367D-02  0.000000D+00                             NZ=T
 IExCor=    0 DFT=F Ex=HF Corr=None ExCW=0 ScaHFX=  1.000000
 ScaDFX=  1.000000  1.000000  1.000000  1.000000 ScalE2=  1.000000  1.000000
 IRadAn=      0 IRanWt=     -1 IRanGd=            0 ICorTp=0 IEmpDi=  4
 NAtoms=    2 NActive=    2 NUniq=    2 SFac= 1.00D+00 NAtFMM=   60 NAOKFM=F Big=F
 Integral buffers will be    131072 words long.
 Raffenetti 1 integral format.
 Two-electron integral symmetry is turned on.
 Pair potential:
 Leave Link  301 at Thu May 11 16:39:06 2023, MaxMem=    33554432 cpu:         0.1
 (Enter /opt/g09/l302.exe)
 NPDir=0 NMtPBC=     1 NCelOv=     1 NCel=       1 NClECP=     1 NCelD=      1
         NCelK=      1 NCelE2=     1 NClLst=     1 CellRange=     0.0.
 One-electron integrals computed using PRISM.
 Entering OneElI...
 OneElI was handed    33554400 working-precision words.
 Calculate overlap and kinetic energy integrals
    NBasis =   2  MinDer = 0  MaxDer = 0
 Requested accuracy = 0.1000D-12
 ShPair: Thresh= 1.00D-13 NBox=     0 BxSize= 0.00D+00 RnKept= 1.46D+00
         NSMCal=                    3 NSMKep=                   3
 PrsmSu:  NPrtUS=   1 ThrOK=F IAlg=1 NPAlg=1 LenDen=           0.
 Prism:   IPart=     0 DynPar=F LinDyn=F Incr=           1.
 PRISM was handed    33553501 working-precision words and     3 shell-pairs
 IPart=  0 NShTot=           3 NBatch=           1 AvBLen=         3.0
 PrSmSu:  NxtVal=              2.
 *** Overlap *** 
                1             2 
      1  0.100000D+01
      2  0.450770D+00  0.100000D+01
 *** Kinetic Energy *** 
                1             2 
      1  0.216431D+01
      2  0.167012D+00  0.760032D+00
 Entering OneElI...
 OneElI was handed    33554400 working-precision words.
 Calculate potential energy integrals
    NBasis =   2  MinDer = 0  MaxDer = 0
 Requested accuracy = 0.1000D-12
 ShPair: Thresh= 1.00D-13 NBox=     0 BxSize= 0.00D+00 RnKept= 1.46D+00
         NSMCal=                    3 NSMKep=                   3
 PrsmSu:  NPrtUS=   1 ThrOK=F IAlg=1 NPAlg=1 LenDen=           0.
 Prism:   IPart=     0 DynPar=F LinDyn=F Incr=           1.
 PRISM was handed    33553456 working-precision words and     3 shell-pairs
 IPart=  0 NShTot=           6 NBatch=           3 AvBLen=         2.0
 PrSmSu:  NxtVal=              2.
 ***** Potential Energy ***** 
                1             2 
      1  0.481705D+01
      2  0.151422D+01  0.249186D+01
 ****** Core Hamiltonian ****** 
                1             2 
      1 -0.265274D+01
      2 -0.134720D+01 -0.173183D+01
 SSO for IR=          1
                 1             2 
      1   0.400000D+01  0.180308D+01
      2   0.180308D+01  0.400000D+01
 SVDSVc IOpt=  1 IR=1
 SVDSVc V= 5.80D+00 2.20D+00
 V for IR=          1
                 1             2 
      1   0.707107D+00  0.707107D+00
      2   0.707107D+00 -0.707107D+00
 Vt*S*V: 
                1             2 
      1  0.100000D+01
      2  0.000000D+00  0.100000D+01
 TstOVc:  Largest diagonal error= 2.22D-16 IB=1 I=    1.
 TstOVc:  Largest same sym error= 1.11D-16 IB=1 I=    2 J=    1.
 TstOVc:  Largest diff sym error= 0.00D+00 IB=0 JB=0 I=    0 J=    0.
 Orthogonalized basis functions: 
                 1             2 
      1   0.587064D+00  0.954130D+00
      2   0.587064D+00 -0.954130D+00
 NBasis=     2 RedAO= T EigKep=  1.10D+00  NBF=     2     0     0     0
 NBsUse=     2 1.00D-06 EigRej= -1.00D+00 NBFU=     2     0     0     0
 Leave Link  302 at Thu May 11 16:39:06 2023, MaxMem=    33554432 cpu:         0.0
 (Enter /opt/g09/l303.exe)
 GetPCM: File not found, return IValue=0.
 DipDrv:  MaxL=1.
 MemDpI: Int=      800000 Cav=           0 CFW=           0 Tot=      800000
 DipPsm:  J= 1 NJ= 4 MaxL=1 MMat= 4 MaxMat= 4.
 DipInt: DoE/N= T F RetVal/Mat= F T Init=T NMatP=  4 IDeriv=0 Min/MaxMlt=  0  1
 Entering OneElI...
 OneElI was handed    33554419 working-precision words.
 Multipole integrals L=0 to 1 MinM= 0 MaxM= 3.
 Requested accuracy = 0.1000D-12
 ShPair: Thresh= 1.00D-13 NBox=     0 BxSize= 0.00D+00 RnKept= 1.46D+00
         NSMCal=                    3 NSMKep=                   3
 PrsmSu:  NPrtUS=   1 ThrOK=F IAlg=1 NPAlg=1 LenDen=           0.
 Prism:   IPart=     0 DynPar=F LinDyn=F Incr=           1.
 PRISM was handed    33553517 working-precision words and     3 shell-pairs
 IPart=  0 NShTot=           3 NBatch=           1 AvBLen=         3.0
 PrSmSu:  NxtVal=              2.
 Multipole matrices IBuc=  518 IX=    1 IJ=           1:
                1             2 
      1  0.000000D+00
      2  0.000000D+00  0.000000D+00
 Multipole matrices IBuc=  518 IX=    2 IJ=           1:
                1             2 
      1  0.000000D+00
      2  0.000000D+00  0.000000D+00
 Multipole matrices IBuc=  518 IX=    3 IJ=           1:
                1             2 
      1  0.487733D+00
      2 -0.438109D-02 -0.975467D+00
 ReDoC1: IPurDI=1 IPurFI=1 IPurDO=0 IPurFO=0.
 MO coefficients before ReDoC1: 
                 1             2 
      1   0.137720D+01  0.784467D-01
      2   0.128760D+00  0.628247D+00
 MO coefficients after ReDoC1: 
                 1             2 
      1   0.137720D+01  0.784467D-01
      2   0.128760D+00  0.628247D+00
 Fermi contact integrals: 
                 1             2 
      1   0.137720D+01  0.784467D-01
      2   0.128760D+00  0.628247D+00
 Leave Link  303 at Thu May 11 16:39:06 2023, MaxMem=    33554432 cpu:         0.0
 (Enter /opt/g09/l401.exe)
 ExpMin= 1.69D-01 ExpMax= 9.75D+00 ExpMxC= 9.75D+00 IAcc=1 IRadAn=         1 AccDes= 0.00D+00
 Harris functional with IExCor=  205 and IRadAn=       1 diagonalized for initial guess.
 HarFok:  IExCor=  205 AccDes= 0.00D+00 IRadAn=         1 IDoV= 1 UseB2=F ITyADJ=14
 ICtDFT=  3500011 ScaDFX=  1.000000  1.000000  1.000000  1.000000
 FoFCou: FMM=F IPFlag=           0 FMFlag=      100000 FMFlg1=           0
         NFxFlg=           0 DoJE=T BraDBF=F KetDBF=T FulRan=T
         wScrn=  0.000000 ICntrl=     500 IOpCl=  0 I1Cent=   200000004 NGrid=           0
         NMat0=    1 NMatS0=      1 NMatT0=    0 NMatD0=    1 NMtDS0=    0 NMtDT0=    0
 Petite list used in FoFCou.
 Harris En= -3.10300167417932    
 JPrj=0 DoOrth=F DoCkMO=F.
 Initial guess orbital symmetries:
       Occupied  (SG)
       Virtual   (SG)
 The electronic state of the initial guess is 1-SG.
 Leave Link  401 at Thu May 11 16:39:06 2023, MaxMem=    33554432 cpu:         0.0
 (Enter /opt/g09/l502.exe)
 Closed shell SCF:
 Using DIIS extrapolation, IDIIS=  1040.
 Integral symmetry usage will be decided dynamically.
 Keep R1 ints in memory in symmetry-blocked form, NReq=821091.
 IVT=       20151 IEndB=       20151 NGot=    33554432 MDV=    33534200
 LenX=    33534200 LenY=    33533318
 Requested convergence on RMS density matrix=1.00D-08 within 128 cycles.
 Requested convergence on MAX density matrix=1.00D-06.
 Requested convergence on             energy=1.00D-06.
 No special actions if energy rises.
 FoFCou: FMM=F IPFlag=           0 FMFlag=           0 FMFlg1=           0
         NFxFlg=           0 DoJE=F BraDBF=F KetDBF=F FulRan=T
         wScrn=  0.000000 ICntrl=     600 IOpCl=  0 I1Cent=           0 NGrid=           0
         NMat0=    1 NMatS0=      3 NMatT0=    0 NMatD0=    1 NMtDS0=    0 NMtDT0=    0
 Petite list used in FoFCou.

 Cycle   1  Pass 1  IDiag  1:
 E= -2.84448140388081    
 DIIS: error= 5.46D-02 at cycle   1 NSaved=   1.
 NSaved= 1 IEnMin= 1 EnMin= -2.84448140388081     IErMin= 1 ErrMin= 5.46D-02
 ErrMax= 5.46D-02  0.00D+00 EMaxC= 1.00D-01 BMatC= 1.19D-02 BMatP= 1.19D-02
 IDIUse=3 WtCom= 4.54D-01 WtEn= 5.46D-01
 Coeff-Com:  0.100D+01
 Coeff-En:   0.100D+01
 Coeff:      0.100D+01
 Gap=     1.549 Goal=   None    Shift=    0.000
 GapD=    1.549 DampG=2.000 DampE=0.500 DampFc=1.0000 IDamp=-1.
 RMSDP=5.76D-02 MaxDP=8.77D-02              OVMax= 0.00D+00

 Cycle   2  Pass 1  IDiag  1:
 E= -2.86059616771273     Delta-E=       -0.016114763832 Rises=F Damp=F
 DIIS: error= 3.33D-03 at cycle   2 NSaved=   2.
 NSaved= 2 IEnMin= 2 EnMin= -2.86059616771273     IErMin= 2 ErrMin= 3.33D-03
 ErrMax= 3.33D-03  0.00D+00 EMaxC= 1.00D-01 BMatC= 4.45D-05 BMatP= 1.19D-02
 IDIUse=3 WtCom= 9.67D-01 WtEn= 3.33D-02
 Coeff-Com: -0.651D-01 0.107D+01
 Coeff-En:   0.000D+00 0.100D+01
 Coeff:     -0.629D-01 0.106D+01
 Gap=     1.536 Goal=   None    Shift=    0.000
 RMSDP=3.85D-03 MaxDP=5.79D-03 DE=-1.61D-02 OVMax= 0.00D+00

 Cycle   3  Pass 1  IDiag  1:
 E= -2.86065859499486     Delta-E=       -0.000062427282 Rises=F Damp=F
 DIIS: error= 4.96D-05 at cycle   3 NSaved=   3.
 NSaved= 3 IEnMin= 3 EnMin= -2.86065859499486     IErMin= 3 ErrMin= 4.96D-05
 ErrMax= 4.96D-05  0.00D+00 EMaxC= 1.00D-01 BMatC= 9.84D-09 BMatP= 4.45D-05
 IDIUse=1 WtCom= 1.00D+00 WtEn= 0.00D+00
 Large coefficients: NSaved=  3 BigCof=    0.00 CofMax=   10.00 Det= 0.00D+00
 Inversion failed.  Reducing to  2 matrices.
 Coeff-Com: -0.151D-01 0.102D+01
 Coeff:     -0.151D-01 0.102D+01
 Gap=     1.536 Goal=   None    Shift=    0.000
 RMSDP=5.83D-05 MaxDP=8.75D-05 DE=-6.24D-05 OVMax= 0.00D+00

 Cycle   4  Pass 1  IDiag  1:
 E= -2.86065860884191     Delta-E=       -0.000000013847 Rises=F Damp=F
 DIIS: error= 4.18D-08 at cycle   4 NSaved=   3.
 NSaved= 3 IEnMin= 3 EnMin= -2.86065860884191     IErMin= 3 ErrMin= 4.18D-08
 ErrMax= 4.18D-08  0.00D+00 EMaxC= 1.00D-01 BMatC= 6.97D-15 BMatP= 9.84D-09
 IDIUse=1 WtCom= 1.00D+00 WtEn= 0.00D+00
 Large coefficients: NSaved=  3 BigCof=    0.00 CofMax=   10.00 Det= 0.00D+00
 Inversion failed.  Reducing to  2 matrices.
 Coeff-Com: -0.843D-03 0.100D+01
 Coeff:     -0.843D-03 0.100D+01
 Gap=     1.536 Goal=   None    Shift=    0.000
 RMSDP=4.91D-08 MaxDP=7.37D-08 DE=-1.38D-08 OVMax= 0.00D+00

 Cycle   5  Pass 1  IDiag  1:
 E= -2.86065860884192     Delta-E=       -0.000000000000 Rises=F Damp=F
 DIIS: error= 5.25D-13 at cycle   5 NSaved=   3.
 NSaved= 3 IEnMin= 3 EnMin= -2.86065860884192     IErMin= 3 ErrMin= 5.25D-13
 ErrMax= 5.25D-13  0.00D+00 EMaxC= 1.00D-01 BMatC= 1.10D-24 BMatP= 6.97D-15
 IDIUse=1 WtCom= 1.00D+00 WtEn= 0.00D+00
 Coeff-Com:  0.000D+00 0.000D+00 0.100D+01
 Coeff:      0.000D+00 0.000D+00 0.100D+01
 Gap=     1.536 Goal=   None    Shift=    0.000
 RMSDP=5.72D-13 MaxDP=8.59D-13 DE=-9.77D-15 OVMax= 0.00D+00

 SCF Done:  E(RHF) =  -2.86065860884     A.U. after    5 cycles
            NFock=  5  Conv=0.57D-12     -V/T= 1.9121
 KE= 3.136469412282D+00 PE=-8.396617391894D+00 EE= 1.032622236230D+00
 Leave Link  502 at Thu May 11 16:39:06 2023, MaxMem=    33554432 cpu:         0.0
 (Enter /opt/g09/l601.exe)
 Copying SCF densities to generalized density rwf, IOpCl= 0 IROHF=0.

 **********************************************************************

            Population analysis using the SCF density.

 **********************************************************************

 Orbital symmetries:
       Occupied  (SG)
       Virtual   (SG)
 The electronic state is 1-SG.
 Alpha  occ. eigenvalues --   -1.59745
 Alpha virt. eigenvalues --   -0.06167
     Molecular Orbital Coefficients:
                           1         2
                           O         V
     Eigenvalues --    -1.59745  -0.06167
   1 1   He 1S          0.80192  -0.78227
   2 2   H  1S          0.33680   1.06844
     Density Matrix:
                           1         2
   1 1   He 1S          1.28614
   2 2   H  1S          0.54017   0.22687
    Full Mulliken population analysis:
                           1         2
   1 1   He 1S          1.28614
   2 2   H  1S          0.24349   0.22687
     Gross orbital populations:
                           1
   1 1   He 1S          1.52964
   2 2   H  1S          0.47036
          Condensed to atoms (all electrons):
               1          2
     1  He   1.286141   0.243494
     2  H    0.243494   0.226871
 Mulliken charges:
               1
     1  He   0.470365
     2  H    0.529635
 Sum of Mulliken charges =   1.00000
 Mulliken charges with hydrogens summed into heavy atoms:
               1
     1  He   1.000000
 Electronic spatial extent (au):  <R**2>=              2.5200
 Charge=              1.0000 electrons
 Dipole moment (field-independent basis, Debye):
    X=              0.0000    Y=              0.0000    Z=             -1.0199  Tot=              1.0199
 Quadrupole moment (field-independent basis, Debye-Ang):
   XX=             -0.8763   YY=             -0.8763   ZZ=              0.2830
   XY=              0.0000   XZ=              0.0000   YZ=              0.0000
 Traceless Quadrupole moment (field-independent basis, Debye-Ang):
   XX=             -0.3864   YY=             -0.3864   ZZ=              0.7729
   XY=              0.0000   XZ=              0.0000   YZ=              0.0000
 Octapole moment (field-independent basis, Debye-Ang**2):
  XXX=              0.0000  YYY=              0.0000  ZZZ=             -0.4377  XYY=              0.0000
  XXY=              0.0000  XXZ=              0.0025  XZZ=              0.0000  YZZ=              0.0000
  YYZ=              0.0025  XYZ=              0.0000
 Hexadecapole moment (field-independent basis, Debye-Ang**3):
 XXXX=             -0.4046 YYYY=             -0.4046 ZZZZ=             -0.6336 XXXY=              0.0000
 XXXZ=              0.0000 YYYX=              0.0000 YYYZ=              0.0000 ZZZX=              0.0000
 ZZZY=              0.0000 XXYY=             -0.1349 XXZZ=             -0.2188 YYZZ=             -0.2188
 XXYZ=              0.0000 YYXZ=              0.0000 ZZXY=              0.0000
 N-N= 1.366867134539D+00 E-N=-8.396617391895D+00  KE= 3.136469412282D+00
 Symmetry A1   KE= 3.136469412282D+00
 Symmetry A2   KE= 0.000000000000D+00
 Symmetry B1   KE= 0.000000000000D+00
 Symmetry B2   KE= 0.000000000000D+00
 Orbital energies and kinetic energies (alpha):
                                 1                 2
   1         O                -1.597452          1.568235
   2         V                -0.061670          1.912878
 Total kinetic energy from orbitals= 3.136469412282D+00
 No NMR shielding tensors so no spin-rotation constants.
 Leave Link  601 at Thu May 11 16:39:07 2023, MaxMem=    33554432 cpu:         0.1
 (Enter /opt/g09/l9999.exe)

 Test job not archived.
 1\1\GINC-GTX1050TI\SP\RHF\Gen\H1He1(1+)\MVEROT\11-May-2023\0\\#P HF/GE
 N SP pop=full iop(3/33=4) gfinput\\Calcul STO-3G pour H2\\1,1\He,0,0.,
 0.,0.\H,0,0.,0.,0.774292095\\Version=AM64L-G09RevD.01\State=1-SG\HF=-2
 .8606586\RMSD=5.722e-13\Dipole=0.,0.,0.401256\Quadrupole=-0.2873138,-0
 .2873138,0.5746276,0.,0.,0.\PG=C*V [C*(H1He1)]\\@


 ADVERTISING--  HE WHO HAS SOMETHING TO SELL AND GOES AND WHISPERS
                IN A WELL, IS NOT SO APT TO GET THE DOLLARS AS HE
                WHO CLIMBS A TREE AND HOLLERS.

                   -- FROM THE BACK OF A SUGAR PACKET
 Job cpu time:       0 days  0 hours  0 minutes  0.6 seconds.
 File lengths (MBytes):  RWF=     67 Int=      0 D2E=      0 Chk=      2 Scr=      2
 Normal termination of Gaussian 09 at Thu May 11 16:39:07 2023.
